2
Lattice="10.0 0.0 0.0 0.0 10.0 0.0 0.0 0.0 10.0" Properties="species:S:1pos:R:3:vel:R:3" Time=0.0
1 3 3 3 1 1 1
1 6 6 6 -1 -1 -1
simpleMD/example.xyz